s 0.034797973 _0_ RTR  --- 0 message 32 [0 0 0 0] ------- [0:255 -1:255 32 0] 
s 0.035112973 _0_ MAC  --- 0 message 90 [0 ffffffff 0 800] ------- [0:255 -1:255 32 0] 
r 0.035833583 _2_ MAC  --- 0 message 32 [0 ffffffff 0 800] ------- [0:255 -1:255 32 0] 
r 0.035833806 _1_ MAC  --- 0 message 32 [0 ffffffff 0 800] ------- [0:255 -1:255 32 0] 
r 0.035833909 _3_ MAC  --- 0 message 32 [0 ffffffff 0 800] ------- [0:255 -1:255 32 0] 
r 0.035834277 _4_ MAC  --- 0 message 32 [0 ffffffff 0 800] ------- [0:255 -1:255 32 0] 
r 0.035858583 _2_ RTR  --- 0 message 32 [0 ffffffff 0 800] ------- [0:255 -1:255 32 0] 
r 0.035858806 _1_ RTR  --- 0 message 32 [0 ffffffff 0 800] ------- [0:255 -1:255 32 0] 
r 0.035858909 _3_ RTR  --- 0 message 32 [0 ffffffff 0 800] ------- [0:255 -1:255 32 0] 
r 0.035859277 _4_ RTR  --- 0 message 32 [0 ffffffff 0 800] ------- [0:255 -1:255 32 0] 
s 0.176673288 _1_ RTR  --- 1 message 32 [0 0 0 0] ------- [1:255 -1:255 32 0] 
s 0.177108288 _1_ MAC  --- 1 message 90 [0 ffffffff 1 800] ------- [1:255 -1:255 32 0] 
r 0.177828875 _2_ MAC  --- 1 message 32 [0 ffffffff 1 800] ------- [1:255 -1:255 32 0] 
r 0.177829122 _0_ MAC  --- 1 message 32 [0 ffffffff 1 800] ------- [1:255 -1:255 32 0] 
r 0.177829210 _3_ MAC  --- 1 message 32 [0 ffffffff 1 800] ------- [1:255 -1:255 32 0] 
r 0.177829582 _4_ MAC  --- 1 message 32 [0 ffffffff 1 800] ------- [1:255 -1:255 32 0] 
r 0.177853875 _2_ RTR  --- 1 message 32 [0 ffffffff 1 800] ------- [1:255 -1:255 32 0] 
r 0.177854122 _0_ RTR  --- 1 message 32 [0 ffffffff 1 800] ------- [1:255 -1:255 32 0] 
r 0.177854210 _3_ RTR  --- 1 message 32 [0 ffffffff 1 800] ------- [1:255 -1:255 32 0] 
r 0.177854582 _4_ RTR  --- 1 message 32 [0 ffffffff 1 800] ------- [1:255 -1:255 32 0] 
s 0.473440071 _6_ RTR  --- 2 message 32 [0 0 0 0] ------- [6:255 -1:255 32 0] 
s 0.473855071 _6_ MAC  --- 2 message 90 [0 ffffffff 6 800] ------- [6:255 -1:255 32 0] 
r 0.474575661 _4_ MAC  --- 2 message 32 [0 ffffffff 6 800] ------- [6:255 -1:255 32 0] 
r 0.474575904 _5_ MAC  --- 2 message 32 [0 ffffffff 6 800] ------- [6:255 -1:255 32 0] 
r 0.474575995 _3_ MAC  --- 2 message 32 [0 ffffffff 6 800] ------- [6:255 -1:255 32 0] 
r 0.474576368 _2_ MAC  --- 2 message 32 [0 ffffffff 6 800] ------- [6:255 -1:255 32 0] 
r 0.474600661 _4_ RTR  --- 2 message 32 [0 ffffffff 6 800] ------- [6:255 -1:255 32 0] 
r 0.474600904 _5_ RTR  --- 2 message 32 [0 ffffffff 6 800] ------- [6:255 -1:255 32 0] 
r 0.474600995 _3_ RTR  --- 2 message 32 [0 ffffffff 6 800] ------- [6:255 -1:255 32 0] 
r 0.474601368 _2_ RTR  --- 2 message 32 [0 ffffffff 6 800] ------- [6:255 -1:255 32 0] 
s 0.629410954 _4_ RTR  --- 3 message 32 [0 0 0 0] ------- [4:255 -1:255 32 0] 
s 0.629505954 _4_ MAC  --- 3 message 90 [0 ffffffff 4 800] ------- [4:255 -1:255 32 0] 
r 0.630226354 _3_ MAC  --- 3 message 32 [0 ffffffff 4 800] ------- [4:255 -1:255 32 0] 
r 0.630226543 _6_ MAC  --- 3 message 32 [0 ffffffff 4 800] ------- [4:255 -1:255 32 0] 
r 0.630226566 _5_ MAC  --- 3 message 32 [0 ffffffff 4 800] ------- [4:255 -1:255 32 0] 
r 0.630226754 _2_ MAC  --- 3 message 32 [0 ffffffff 4 800] ------- [4:255 -1:255 32 0] 
r 0.630227247 _1_ MAC  --- 3 message 32 [0 ffffffff 4 800] ------- [4:255 -1:255 32 0] 
r 0.630227258 _0_ MAC  --- 3 message 32 [0 ffffffff 4 800] ------- [4:255 -1:255 32 0] 
r 0.630251354 _3_ RTR  --- 3 message 32 [0 ffffffff 4 800] ------- [4:255 -1:255 32 0] 
r 0.630251543 _6_ RTR  --- 3 message 32 [0 ffffffff 4 800] ------- [4:255 -1:255 32 0] 
r 0.630251566 _5_ RTR  --- 3 message 32 [0 ffffffff 4 800] ------- [4:255 -1:255 32 0] 
r 0.630251754 _2_ RTR  --- 3 message 32 [0 ffffffff 4 800] ------- [4:255 -1:255 32 0] 
r 0.630252247 _1_ RTR  --- 3 message 32 [0 ffffffff 4 800] ------- [4:255 -1:255 32 0] 
r 0.630252258 _0_ RTR  --- 3 message 32 [0 ffffffff 4 800] ------- [4:255 -1:255 32 0] 
s 0.887007923 _2_ RTR  --- 4 message 32 [0 0 0 0] ------- [2:255 -1:255 32 0] 
s 0.887662923 _2_ MAC  --- 4 message 90 [0 ffffffff 2 800] ------- [2:255 -1:255 32 0] 
r 0.888383323 _3_ MAC  --- 4 message 32 [0 ffffffff 2 800] ------- [2:255 -1:255 32 0] 
r 0.888383511 _1_ MAC  --- 4 message 32 [0 ffffffff 2 800] ------- [2:255 -1:255 32 0] 
r 0.888383534 _0_ MAC  --- 4 message 32 [0 ffffffff 2 800] ------- [2:255 -1:255 32 0] 
r 0.888383723 _4_ MAC  --- 4 message 32 [0 ffffffff 2 800] ------- [2:255 -1:255 32 0] 
r 0.888384220 _6_ MAC  --- 4 message 32 [0 ffffffff 2 800] ------- [2:255 -1:255 32 0] 
r 0.888384231 _5_ MAC  --- 4 message 32 [0 ffffffff 2 800] ------- [2:255 -1:255 32 0] 
r 0.888408323 _3_ RTR  --- 4 message 32 [0 ffffffff 2 800] ------- [2:255 -1:255 32 0] 
r 0.888408511 _1_ RTR  --- 4 message 32 [0 ffffffff 2 800] ------- [2:255 -1:255 32 0] 
r 0.888408534 _0_ RTR  --- 4 message 32 [0 ffffffff 2 800] ------- [2:255 -1:255 32 0] 
r 0.888408723 _4_ RTR  --- 4 message 32 [0 ffffffff 2 800] ------- [2:255 -1:255 32 0] 
r 0.888409220 _6_ RTR  --- 4 message 32 [0 ffffffff 2 800] ------- [2:255 -1:255 32 0] 
r 0.888409231 _5_ RTR  --- 4 message 32 [0 ffffffff 2 800] ------- [2:255 -1:255 32 0] 
s 1.600482502 _3_ RTR  --- 5 message 32 [0 0 0 0] ------- [3:255 -1:255 32 0] 
s 1.600597502 _3_ MAC  --- 5 message 90 [0 ffffffff 3 800] ------- [3:255 -1:255 32 0] 
r 1.601317902 _2_ MAC  --- 5 message 32 [0 ffffffff 3 800] ------- [3:255 -1:255 32 0] 
r 1.601317902 _4_ MAC  --- 5 message 32 [0 ffffffff 3 800] ------- [3:255 -1:255 32 0] 
r 1.601318423 _1_ MAC  --- 5 message 32 [0 ffffffff 3 800] ------- [3:255 -1:255 32 0] 
r 1.601318426 _6_ MAC  --- 5 message 32 [0 ffffffff 3 800] ------- [3:255 -1:255 32 0] 
r 1.601318438 _0_ MAC  --- 5 message 32 [0 ffffffff 3 800] ------- [3:255 -1:255 32 0] 
r 1.601318441 _5_ MAC  --- 5 message 32 [0 ffffffff 3 800] ------- [3:255 -1:255 32 0] 
r 1.601342902 _2_ RTR  --- 5 message 32 [0 ffffffff 3 800] ------- [3:255 -1:255 32 0] 
r 1.601342902 _4_ RTR  --- 5 message 32 [0 ffffffff 3 800] ------- [3:255 -1:255 32 0] 
r 1.601343423 _1_ RTR  --- 5 message 32 [0 ffffffff 3 800] ------- [3:255 -1:255 32 0] 
r 1.601343426 _6_ RTR  --- 5 message 32 [0 ffffffff 3 800] ------- [3:255 -1:255 32 0] 
r 1.601343438 _0_ RTR  --- 5 message 32 [0 ffffffff 3 800] ------- [3:255 -1:255 32 0] 
r 1.601343441 _5_ RTR  --- 5 message 32 [0 ffffffff 3 800] ------- [3:255 -1:255 32 0] 
s 1.640574422 _5_ RTR  --- 6 message 32 [0 0 0 0] ------- [5:255 -1:255 32 0] 
s 1.640729422 _5_ MAC  --- 6 message 90 [0 ffffffff 5 800] ------- [5:255 -1:255 32 0] 
r 1.641450035 _4_ MAC  --- 6 message 32 [0 ffffffff 5 800] ------- [5:255 -1:255 32 0] 
r 1.641450255 _6_ MAC  --- 6 message 32 [0 ffffffff 5 800] ------- [5:255 -1:255 32 0] 
r 1.641450361 _3_ MAC  --- 6 message 32 [0 ffffffff 5 800] ------- [5:255 -1:255 32 0] 
r 1.641450729 _2_ MAC  --- 6 message 32 [0 ffffffff 5 800] ------- [5:255 -1:255 32 0] 
r 1.641475035 _4_ RTR  --- 6 message 32 [0 ffffffff 5 800] ------- [5:255 -1:255 32 0] 
r 1.641475255 _6_ RTR  --- 6 message 32 [0 ffffffff 5 800] ------- [5:255 -1:255 32 0] 
r 1.641475361 _3_ RTR  --- 6 message 32 [0 ffffffff 5 800] ------- [5:255 -1:255 32 0] 
r 1.641475729 _2_ RTR  --- 6 message 32 [0 ffffffff 5 800] ------- [5:255 -1:255 32 0] 
M 3.00000 0 (1.00, 300.00, 50.00), (1.00, 300.00), 0.00
M 3.00000 1 (1.00, 50.00, 50.00), (1.00, 50.00), 0.00
M 3.00000 2 (130.00, 170.00, 50.00), (150.00, 170.00), 0.00
M 3.00000 3 (250.00, 170.00, 50.00), (250.00, 170.00), 0.00
M 3.00000 4 (370.00, 170.00, 50.00), (350.00, 170.00), 0.00
M 3.00000 5 (500.00, 300.00, 50.00), (500.00, 300.00), 0.00
M 3.00000 6 (500.00, 50.00, 50.00), (500.00, 50.00), 0.00
s 3.000000000 _0_ AGT  --- 7 tcp 40 [0 0 0 0] ------- [0:0 5:0 32 0] [0 0] 0 0
r 3.000000000 _0_ RTR  --- 7 tcp 40 [0 0 0 0] ------- [0:0 5:0 32 0] [0 0] 0 0
s 3.000000000 _1_ AGT  --- 8 tcp 40 [0 0 0 0] ------- [1:0 6:0 32 0] [0 0] 0 0
r 3.000000000 _1_ RTR  --- 8 tcp 40 [0 0 0 0] ------- [1:0 6:0 32 0] [0 0] 0 0
s 6.000000000 _0_ AGT  --- 9 tcp 40 [0 0 0 0] ------- [0:0 5:0 32 0] [0 0] 0 0
r 6.000000000 _0_ RTR  --- 9 tcp 40 [0 0 0 0] ------- [0:0 5:0 32 0] [0 0] 0 0
s 6.000000000 _1_ AGT  --- 10 tcp 40 [0 0 0 0] ------- [1:0 6:0 32 0] [0 0] 0 0
r 6.000000000 _1_ RTR  --- 10 tcp 40 [0 0 0 0] ------- [1:0 6:0 32 0] [0 0] 0 0
s 12.000000000 _0_ AGT  --- 11 tcp 40 [0 0 0 0] ------- [0:0 5:0 32 0] [0 0] 0 0
r 12.000000000 _0_ RTR  --- 11 tcp 40 [0 0 0 0] ------- [0:0 5:0 32 0] [0 0] 0 0
s 12.000000000 _1_ AGT  --- 12 tcp 40 [0 0 0 0] ------- [1:0 6:0 32 0] [0 0] 0 0
r 12.000000000 _1_ RTR  --- 12 tcp 40 [0 0 0 0] ------- [1:0 6:0 32 0] [0 0] 0 0
s 12.037732458 _1_ RTR  --- 14 message 32 [0 0 0 0] ------- [1:255 -1:255 32 0] 
s 12.038007458 _1_ MAC  --- 14 message 90 [0 ffffffff 1 800] ------- [1:255 -1:255 32 0] 
r 12.038728046 _2_ MAC  --- 14 message 32 [0 ffffffff 1 800] ------- [1:255 -1:255 32 0] 
r 12.038728292 _0_ MAC  --- 14 message 32 [0 ffffffff 1 800] ------- [1:255 -1:255 32 0] 
r 12.038728380 _3_ MAC  --- 14 message 32 [0 ffffffff 1 800] ------- [1:255 -1:255 32 0] 
r 12.038728752 _4_ MAC  --- 14 message 32 [0 ffffffff 1 800] ------- [1:255 -1:255 32 0] 
r 12.038753046 _2_ RTR  --- 14 message 32 [0 ffffffff 1 800] ------- [1:255 -1:255 32 0] 
r 12.038753292 _0_ RTR  --- 14 message 32 [0 ffffffff 1 800] ------- [1:255 -1:255 32 0] 
r 12.038753380 _3_ RTR  --- 14 message 32 [0 ffffffff 1 800] ------- [1:255 -1:255 32 0] 
r 12.038753752 _4_ RTR  --- 14 message 32 [0 ffffffff 1 800] ------- [1:255 -1:255 32 0] 
s 12.039900658 _2_ RTR  --- 13 message 32 [0 0 0 0] ------- [2:255 -1:255 32 0] 
s 12.040035658 _2_ MAC  --- 13 message 90 [0 ffffffff 2 800] ------- [2:255 -1:255 32 0] 
r 12.040756058 _3_ MAC  --- 13 message 32 [0 ffffffff 2 800] ------- [2:255 -1:255 32 0] 
r 12.040756246 _1_ MAC  --- 13 message 32 [0 ffffffff 2 800] ------- [2:255 -1:255 32 0] 
r 12.040756269 _0_ MAC  --- 13 message 32 [0 ffffffff 2 800] ------- [2:255 -1:255 32 0] 
r 12.040756458 _4_ MAC  --- 13 message 32 [0 ffffffff 2 800] ------- [2:255 -1:255 32 0] 
r 12.040756955 _6_ MAC  --- 13 message 32 [0 ffffffff 2 800] ------- [2:255 -1:255 32 0] 
r 12.040756966 _5_ MAC  --- 13 message 32 [0 ffffffff 2 800] ------- [2:255 -1:255 32 0] 
r 12.040781058 _3_ RTR  --- 13 message 32 [0 ffffffff 2 800] ------- [2:255 -1:255 32 0] 
r 12.040781246 _1_ RTR  --- 13 message 32 [0 ffffffff 2 800] ------- [2:255 -1:255 32 0] 
r 12.040781269 _0_ RTR  --- 13 message 32 [0 ffffffff 2 800] ------- [2:255 -1:255 32 0] 
r 12.040781458 _4_ RTR  --- 13 message 32 [0 ffffffff 2 800] ------- [2:255 -1:255 32 0] 
r 12.040781955 _6_ RTR  --- 13 message 32 [0 ffffffff 2 800] ------- [2:255 -1:255 32 0] 
r 12.040781966 _5_ RTR  --- 13 message 32 [0 ffffffff 2 800] ------- [2:255 -1:255 32 0] 
s 12.044733345 _3_ RTR  --- 15 message 32 [0 0 0 0] ------- [3:255 -1:255 32 0] 
s 12.045148345 _3_ MAC  --- 15 message 90 [0 ffffffff 3 800] ------- [3:255 -1:255 32 0] 
s 12.045321926 _4_ RTR  --- 16 message 32 [0 0 0 0] ------- [4:255 -1:255 32 0] 
r 12.045868745 _2_ MAC  --- 15 message 32 [0 ffffffff 3 800] ------- [3:255 -1:255 32 0] 
r 12.045868745 _4_ MAC  --- 15 message 32 [0 ffffffff 3 800] ------- [3:255 -1:255 32 0] 
r 12.045869266 _1_ MAC  --- 15 message 32 [0 ffffffff 3 800] ------- [3:255 -1:255 32 0] 
r 12.045869269 _6_ MAC  --- 15 message 32 [0 ffffffff 3 800] ------- [3:255 -1:255 32 0] 
r 12.045869281 _0_ MAC  --- 15 message 32 [0 ffffffff 3 800] ------- [3:255 -1:255 32 0] 
r 12.045869284 _5_ MAC  --- 15 message 32 [0 ffffffff 3 800] ------- [3:255 -1:255 32 0] 
r 12.045893745 _2_ RTR  --- 15 message 32 [0 ffffffff 3 800] ------- [3:255 -1:255 32 0] 
r 12.045893745 _4_ RTR  --- 15 message 32 [0 ffffffff 3 800] ------- [3:255 -1:255 32 0] 
r 12.045894266 _1_ RTR  --- 15 message 32 [0 ffffffff 3 800] ------- [3:255 -1:255 32 0] 
r 12.045894269 _6_ RTR  --- 15 message 32 [0 ffffffff 3 800] ------- [3:255 -1:255 32 0] 
r 12.045894281 _0_ RTR  --- 15 message 32 [0 ffffffff 3 800] ------- [3:255 -1:255 32 0] 
r 12.045894284 _5_ RTR  --- 15 message 32 [0 ffffffff 3 800] ------- [3:255 -1:255 32 0] 
s 12.046418745 _4_ MAC  --- 16 message 90 [0 ffffffff 4 800] ------- [4:255 -1:255 32 0] 
r 12.047139145 _3_ MAC  --- 16 message 32 [0 ffffffff 4 800] ------- [4:255 -1:255 32 0] 
r 12.047139334 _6_ MAC  --- 16 message 32 [0 ffffffff 4 800] ------- [4:255 -1:255 32 0] 
r 12.047139357 _5_ MAC  --- 16 message 32 [0 ffffffff 4 800] ------- [4:255 -1:255 32 0] 
r 12.047139545 _2_ MAC  --- 16 message 32 [0 ffffffff 4 800] ------- [4:255 -1:255 32 0] 
r 12.047140038 _1_ MAC  --- 16 message 32 [0 ffffffff 4 800] ------- [4:255 -1:255 32 0] 
r 12.047140049 _0_ MAC  --- 16 message 32 [0 ffffffff 4 800] ------- [4:255 -1:255 32 0] 
r 12.047164145 _3_ RTR  --- 16 message 32 [0 ffffffff 4 800] ------- [4:255 -1:255 32 0] 
r 12.047164334 _6_ RTR  --- 16 message 32 [0 ffffffff 4 800] ------- [4:255 -1:255 32 0] 
r 12.047164357 _5_ RTR  --- 16 message 32 [0 ffffffff 4 800] ------- [4:255 -1:255 32 0] 
r 12.047164545 _2_ RTR  --- 16 message 32 [0 ffffffff 4 800] ------- [4:255 -1:255 32 0] 
r 12.047165038 _1_ RTR  --- 16 message 32 [0 ffffffff 4 800] ------- [4:255 -1:255 32 0] 
r 12.047165049 _0_ RTR  --- 16 message 32 [0 ffffffff 4 800] ------- [4:255 -1:255 32 0] 
s 12.180424059 _0_ RTR  --- 17 message 32 [0 0 0 0] ------- [0:255 -1:255 32 0] 
s 12.180979059 _0_ MAC  --- 17 message 90 [0 ffffffff 0 800] ------- [0:255 -1:255 32 0] 
r 12.181699669 _2_ MAC  --- 17 message 32 [0 ffffffff 0 800] ------- [0:255 -1:255 32 0] 
r 12.181699892 _1_ MAC  --- 17 message 32 [0 ffffffff 0 800] ------- [0:255 -1:255 32 0] 
r 12.181699995 _3_ MAC  --- 17 message 32 [0 ffffffff 0 800] ------- [0:255 -1:255 32 0] 
r 12.181700363 _4_ MAC  --- 17 message 32 [0 ffffffff 0 800] ------- [0:255 -1:255 32 0] 
r 12.181724669 _2_ RTR  --- 17 message 32 [0 ffffffff 0 800] ------- [0:255 -1:255 32 0] 
r 12.181724892 _1_ RTR  --- 17 message 32 [0 ffffffff 0 800] ------- [0:255 -1:255 32 0] 
r 12.181724995 _3_ RTR  --- 17 message 32 [0 ffffffff 0 800] ------- [0:255 -1:255 32 0] 
r 12.181725363 _4_ RTR  --- 17 message 32 [0 ffffffff 0 800] ------- [0:255 -1:255 32 0] 
s 12.383489762 _6_ RTR  --- 18 message 32 [0 0 0 0] ------- [6:255 -1:255 32 0] 
s 12.383724762 _6_ MAC  --- 18 message 90 [0 ffffffff 6 800] ------- [6:255 -1:255 32 0] 
r 12.384445352 _4_ MAC  --- 18 message 32 [0 ffffffff 6 800] ------- [6:255 -1:255 32 0] 
r 12.384445596 _5_ MAC  --- 18 message 32 [0 ffffffff 6 800] ------- [6:255 -1:255 32 0] 
r 12.384445687 _3_ MAC  --- 18 message 32 [0 ffffffff 6 800] ------- [6:255 -1:255 32 0] 
r 12.384446059 _2_ MAC  --- 18 message 32 [0 ffffffff 6 800] ------- [6:255 -1:255 32 0] 
r 12.384470352 _4_ RTR  --- 18 message 32 [0 ffffffff 6 800] ------- [6:255 -1:255 32 0] 
r 12.384470596 _5_ RTR  --- 18 message 32 [0 ffffffff 6 800] ------- [6:255 -1:255 32 0] 
r 12.384470687 _3_ RTR  --- 18 message 32 [0 ffffffff 6 800] ------- [6:255 -1:255 32 0] 
r 12.384471059 _2_ RTR  --- 18 message 32 [0 ffffffff 6 800] ------- [6:255 -1:255 32 0] 
s 12.437731363 _0_ RTR  --- 19 message 44 [0 0 0 0] ------- [0:255 -1:255 32 0] 
s 12.437806363 _0_ MAC  --- 19 message 102 [0 ffffffff 0 800] ------- [0:255 -1:255 32 0] 
r 12.438622973 _2_ MAC  --- 19 message 44 [0 ffffffff 0 800] ------- [0:255 -1:255 32 0] 
r 12.438623196 _1_ MAC  --- 19 message 44 [0 ffffffff 0 800] ------- [0:255 -1:255 32 0] 
r 12.438623299 _3_ MAC  --- 19 message 44 [0 ffffffff 0 800] ------- [0:255 -1:255 32 0] 
r 12.438623667 _4_ MAC  --- 19 message 44 [0 ffffffff 0 800] ------- [0:255 -1:255 32 0] 
r 12.438647973 _2_ RTR  --- 19 message 44 [0 ffffffff 0 800] ------- [0:255 -1:255 32 0] 
r 12.438648196 _1_ RTR  --- 19 message 44 [0 ffffffff 0 800] ------- [0:255 -1:255 32 0] 
r 12.438648299 _3_ RTR  --- 19 message 44 [0 ffffffff 0 800] ------- [0:255 -1:255 32 0] 
r 12.438648667 _4_ RTR  --- 19 message 44 [0 ffffffff 0 800] ------- [0:255 -1:255 32 0] 
s 12.639719728 _5_ RTR  --- 21 message 32 [0 0 0 0] ------- [5:255 -1:255 32 0] 
s 12.640074728 _5_ MAC  --- 21 message 90 [0 ffffffff 5 800] ------- [5:255 -1:255 32 0] 
r 12.640795341 _4_ MAC  --- 21 message 32 [0 ffffffff 5 800] ------- [5:255 -1:255 32 0] 
r 12.640795562 _6_ MAC  --- 21 message 32 [0 ffffffff 5 800] ------- [5:255 -1:255 32 0] 
r 12.640795668 _3_ MAC  --- 21 message 32 [0 ffffffff 5 800] ------- [5:255 -1:255 32 0] 
r 12.640796036 _2_ MAC  --- 21 message 32 [0 ffffffff 5 800] ------- [5:255 -1:255 32 0] 
r 12.640820341 _4_ RTR  --- 21 message 32 [0 ffffffff 5 800] ------- [5:255 -1:255 32 0] 
r 12.640820562 _6_ RTR  --- 21 message 32 [0 ffffffff 5 800] ------- [5:255 -1:255 32 0] 
r 12.640820668 _3_ RTR  --- 21 message 32 [0 ffffffff 5 800] ------- [5:255 -1:255 32 0] 
r 12.640821036 _2_ RTR  --- 21 message 32 [0 ffffffff 5 800] ------- [5:255 -1:255 32 0] 
s 12.850702724 _4_ RTR  --- 22 message 44 [0 0 0 0] ------- [4:255 -1:255 32 0] 
s 12.850897724 _4_ MAC  --- 22 message 102 [0 ffffffff 4 800] ------- [4:255 -1:255 32 0] 
r 12.851714124 _3_ MAC  --- 22 message 44 [0 ffffffff 4 800] ------- [4:255 -1:255 32 0] 
r 12.851714314 _6_ MAC  --- 22 message 44 [0 ffffffff 4 800] ------- [4:255 -1:255 32 0] 
r 12.851714337 _5_ MAC  --- 22 message 44 [0 ffffffff 4 800] ------- [4:255 -1:255 32 0] 
r 12.851714524 _2_ MAC  --- 22 message 44 [0 ffffffff 4 800] ------- [4:255 -1:255 32 0] 
r 12.851715017 _1_ MAC  --- 22 message 44 [0 ffffffff 4 800] ------- [4:255 -1:255 32 0] 
r 12.851715028 _0_ MAC  --- 22 message 44 [0 ffffffff 4 800] ------- [4:255 -1:255 32 0] 
r 12.851739124 _3_ RTR  --- 22 message 44 [0 ffffffff 4 800] ------- [4:255 -1:255 32 0] 
r 12.851739314 _6_ RTR  --- 22 message 44 [0 ffffffff 4 800] ------- [4:255 -1:255 32 0] 
r 12.851739337 _5_ RTR  --- 22 message 44 [0 ffffffff 4 800] ------- [4:255 -1:255 32 0] 
r 12.851739524 _2_ RTR  --- 22 message 44 [0 ffffffff 4 800] ------- [4:255 -1:255 32 0] 
r 12.851740017 _1_ RTR  --- 22 message 44 [0 ffffffff 4 800] ------- [4:255 -1:255 32 0] 
r 12.851740028 _0_ RTR  --- 22 message 44 [0 ffffffff 4 800] ------- [4:255 -1:255 32 0] 
s 13.036360140 _1_ RTR  --- 24 message 32 [0 0 0 0] ------- [1:255 -1:255 32 0] 
s 13.036635140 _1_ MAC  --- 24 message 90 [0 ffffffff 1 800] ------- [1:255 -1:255 32 0] 
r 13.037355727 _2_ MAC  --- 24 message 32 [0 ffffffff 1 800] ------- [1:255 -1:255 32 0] 
r 13.037355973 _0_ MAC  --- 24 message 32 [0 ffffffff 1 800] ------- [1:255 -1:255 32 0] 
r 13.037356061 _3_ MAC  --- 24 message 32 [0 ffffffff 1 800] ------- [1:255 -1:255 32 0] 
r 13.037356434 _4_ MAC  --- 24 message 32 [0 ffffffff 1 800] ------- [1:255 -1:255 32 0] 
r 13.037380727 _2_ RTR  --- 24 message 32 [0 ffffffff 1 800] ------- [1:255 -1:255 32 0] 
r 13.037380973 _0_ RTR  --- 24 message 32 [0 ffffffff 1 800] ------- [1:255 -1:255 32 0] 
r 13.037381061 _3_ RTR  --- 24 message 32 [0 ffffffff 1 800] ------- [1:255 -1:255 32 0] 
r 13.037381434 _4_ RTR  --- 24 message 32 [0 ffffffff 1 800] ------- [1:255 -1:255 32 0] 
s 13.040775800 _2_ RTR  --- 23 message 32 [0 0 0 0] ------- [2:255 -1:255 32 0] 
s 13.040930800 _2_ MAC  --- 23 message 90 [0 ffffffff 2 800] ------- [2:255 -1:255 32 0] 
r 13.041651200 _3_ MAC  --- 23 message 32 [0 ffffffff 2 800] ------- [2:255 -1:255 32 0] 
r 13.041651388 _1_ MAC  --- 23 message 32 [0 ffffffff 2 800] ------- [2:255 -1:255 32 0] 
r 13.041651411 _0_ MAC  --- 23 message 32 [0 ffffffff 2 800] ------- [2:255 -1:255 32 0] 
r 13.041651600 _4_ MAC  --- 23 message 32 [0 ffffffff 2 800] ------- [2:255 -1:255 32 0] 
r 13.041652097 _6_ MAC  --- 23 message 32 [0 ffffffff 2 800] ------- [2:255 -1:255 32 0] 
r 13.041652107 _5_ MAC  --- 23 message 32 [0 ffffffff 2 800] ------- [2:255 -1:255 32 0] 
r 13.041676200 _3_ RTR  --- 23 message 32 [0 ffffffff 2 800] ------- [2:255 -1:255 32 0] 
r 13.041676388 _1_ RTR  --- 23 message 32 [0 ffffffff 2 800] ------- [2:255 -1:255 32 0] 
r 13.041676411 _0_ RTR  --- 23 message 32 [0 ffffffff 2 800] ------- [2:255 -1:255 32 0] 
r 13.041676600 _4_ RTR  --- 23 message 32 [0 ffffffff 2 800] ------- [2:255 -1:255 32 0] 
r 13.041677097 _6_ RTR  --- 23 message 32 [0 ffffffff 2 800] ------- [2:255 -1:255 32 0] 
r 13.041677107 _5_ RTR  --- 23 message 32 [0 ffffffff 2 800] ------- [2:255 -1:255 32 0] 
s 13.044509964 _3_ RTR  --- 25 message 44 [0 0 0 0] ------- [3:255 -1:255 32 0] 
s 13.044784964 _3_ MAC  --- 25 message 102 [0 ffffffff 3 800] ------- [3:255 -1:255 32 0] 
r 13.045601364 _2_ MAC  --- 25 message 44 [0 ffffffff 3 800] ------- [3:255 -1:255 32 0] 
r 13.045601364 _4_ MAC  --- 25 message 44 [0 ffffffff 3 800] ------- [3:255 -1:255 32 0] 
r 13.045601885 _1_ MAC  --- 25 message 44 [0 ffffffff 3 800] ------- [3:255 -1:255 32 0] 
r 13.045601888 _6_ MAC  --- 25 message 44 [0 ffffffff 3 800] ------- [3:255 -1:255 32 0] 
r 13.045601900 _0_ MAC  --- 25 message 44 [0 ffffffff 3 800] ------- [3:255 -1:255 32 0] 
r 13.045601903 _5_ MAC  --- 25 message 44 [0 ffffffff 3 800] ------- [3:255 -1:255 32 0] 
r 13.045626364 _2_ RTR  --- 25 message 44 [0 ffffffff 3 800] ------- [3:255 -1:255 32 0] 
r 13.045626364 _4_ RTR  --- 25 message 44 [0 ffffffff 3 800] ------- [3:255 -1:255 32 0] 
r 13.045626885 _1_ RTR  --- 25 message 44 [0 ffffffff 3 800] ------- [3:255 -1:255 32 0] 
r 13.045626888 _6_ RTR  --- 25 message 44 [0 ffffffff 3 800] ------- [3:255 -1:255 32 0] 
r 13.045626900 _0_ RTR  --- 25 message 44 [0 ffffffff 3 800] ------- [3:255 -1:255 32 0] 
r 13.045626903 _5_ RTR  --- 25 message 44 [0 ffffffff 3 800] ------- [3:255 -1:255 32 0] 
s 13.382003623 _6_ RTR  --- 26 message 32 [0 0 0 0] ------- [6:255 -1:255 32 0] 
s 13.382678623 _6_ MAC  --- 26 message 90 [0 ffffffff 6 800] ------- [6:255 -1:255 32 0] 
r 13.383399213 _4_ MAC  --- 26 message 32 [0 ffffffff 6 800] ------- [6:255 -1:255 32 0] 
r 13.383399457 _5_ MAC  --- 26 message 32 [0 ffffffff 6 800] ------- [6:255 -1:255 32 0] 
r 13.383399548 _3_ MAC  --- 26 message 32 [0 ffffffff 6 800] ------- [6:255 -1:255 32 0] 
r 13.383399920 _2_ MAC  --- 26 message 32 [0 ffffffff 6 800] ------- [6:255 -1:255 32 0] 
r 13.383424213 _4_ RTR  --- 26 message 32 [0 ffffffff 6 800] ------- [6:255 -1:255 32 0] 
r 13.383424457 _5_ RTR  --- 26 message 32 [0 ffffffff 6 800] ------- [6:255 -1:255 32 0] 
r 13.383424548 _3_ RTR  --- 26 message 32 [0 ffffffff 6 800] ------- [6:255 -1:255 32 0] 
r 13.383424920 _2_ RTR  --- 26 message 32 [0 ffffffff 6 800] ------- [6:255 -1:255 32 0] 
s 13.444814193 _0_ RTR  --- 27 message 32 [0 0 0 0] ------- [0:255 -1:255 32 0] 
s 13.445469193 _0_ MAC  --- 27 message 90 [0 ffffffff 0 800] ------- [0:255 -1:255 32 0] 
r 13.446189804 _2_ MAC  --- 27 message 32 [0 ffffffff 0 800] ------- [0:255 -1:255 32 0] 
r 13.446190027 _1_ MAC  --- 27 message 32 [0 ffffffff 0 800] ------- [0:255 -1:255 32 0] 
r 13.446190130 _3_ MAC  --- 27 message 32 [0 ffffffff 0 800] ------- [0:255 -1:255 32 0] 
r 13.446190498 _4_ MAC  --- 27 message 32 [0 ffffffff 0 800] ------- [0:255 -1:255 32 0] 
r 13.446214804 _2_ RTR  --- 27 message 32 [0 ffffffff 0 800] ------- [0:255 -1:255 32 0] 
r 13.446215027 _1_ RTR  --- 27 message 32 [0 ffffffff 0 800] ------- [0:255 -1:255 32 0] 
r 13.446215130 _3_ RTR  --- 27 message 32 [0 ffffffff 0 800] ------- [0:255 -1:255 32 0] 
r 13.446215498 _4_ RTR  --- 27 message 32 [0 ffffffff 0 800] ------- [0:255 -1:255 32 0] 
s 13.635835652 _5_ RTR  --- 28 message 44 [0 0 0 0] ------- [5:255 -1:255 32 0] 
s 13.636350652 _5_ MAC  --- 28 message 102 [0 ffffffff 5 800] ------- [5:255 -1:255 32 0] 
r 13.637167265 _4_ MAC  --- 28 message 44 [0 ffffffff 5 800] ------- [5:255 -1:255 32 0] 
r 13.637167486 _6_ MAC  --- 28 message 44 [0 ffffffff 5 800] ------- [5:255 -1:255 32 0] 
r 13.637167592 _3_ MAC  --- 28 message 44 [0 ffffffff 5 800] ------- [5:255 -1:255 32 0] 
r 13.637167959 _2_ MAC  --- 28 message 44 [0 ffffffff 5 800] ------- [5:255 -1:255 32 0] 
r 13.637192265 _4_ RTR  --- 28 message 44 [0 ffffffff 5 800] ------- [5:255 -1:255 32 0] 
r 13.637192486 _6_ RTR  --- 28 message 44 [0 ffffffff 5 800] ------- [5:255 -1:255 32 0] 
r 13.637192592 _3_ RTR  --- 28 message 44 [0 ffffffff 5 800] ------- [5:255 -1:255 32 0] 
r 13.637192959 _2_ RTR  --- 28 message 44 [0 ffffffff 5 800] ------- [5:255 -1:255 32 0] 
s 13.759542271 _3_ RTR  --- 29 message 68 [0 0 0 0] ------- [3:255 -1:255 32 0] 
s 13.759917271 _3_ MAC  --- 29 message 126 [0 ffffffff 3 800] ------- [3:255 -1:255 32 0] 
r 13.760925671 _2_ MAC  --- 29 message 68 [0 ffffffff 3 800] ------- [3:255 -1:255 32 0] 
r 13.760925671 _4_ MAC  --- 29 message 68 [0 ffffffff 3 800] ------- [3:255 -1:255 32 0] 
r 13.760926192 _1_ MAC  --- 29 message 68 [0 ffffffff 3 800] ------- [3:255 -1:255 32 0] 
r 13.760926195 _6_ MAC  --- 29 message 68 [0 ffffffff 3 800] ------- [3:255 -1:255 32 0] 
r 13.760926207 _0_ MAC  --- 29 message 68 [0 ffffffff 3 800] ------- [3:255 -1:255 32 0] 
r 13.760926210 _5_ MAC  --- 29 message 68 [0 ffffffff 3 800] ------- [3:255 -1:255 32 0] 
r 13.760950671 _2_ RTR  --- 29 message 68 [0 ffffffff 3 800] ------- [3:255 -1:255 32 0] 
r 13.760950671 _4_ RTR  --- 29 message 68 [0 ffffffff 3 800] ------- [3:255 -1:255 32 0] 
r 13.760951192 _1_ RTR  --- 29 message 68 [0 ffffffff 3 800] ------- [3:255 -1:255 32 0] 
r 13.760951195 _6_ RTR  --- 29 message 68 [0 ffffffff 3 800] ------- [3:255 -1:255 32 0] 
r 13.760951207 _0_ RTR  --- 29 message 68 [0 ffffffff 3 800] ------- [3:255 -1:255 32 0] 
s 13.760951207 _0_ RTR  --- 7 tcp 80 [0 0 0 0] ------- [0:0 5:0 32 3] [0 0] 0 0
s 13.760951207 _0_ RTR  --- 9 tcp 80 [0 0 0 0] ------- [0:0 5:0 32 3] [0 0] 0 0
D 13.760951207 _0_ IFQ  ARP 7 tcp 80 [0 0 0 800] ------- [0:0 5:0 32 3] [0 0] 0 0
s 13.760951207 _0_ RTR  --- 11 tcp 80 [0 0 0 0] ------- [0:0 5:0 32 3] [0 0] 0 0
D 13.760951207 _0_ IFQ  ARP 9 tcp 80 [0 0 0 800] ------- [0:0 5:0 32 3] [0 0] 0 0
r 13.760951210 _5_ RTR  --- 29 message 68 [0 ffffffff 3 800] ------- [3:255 -1:255 32 0] 
s 13.761046207 _0_ MAC  --- 0 ARP 86 [0 ffffffff 0 806] ------- [REQUEST 0/0 0/3]
r 13.761734818 _2_ MAC  --- 0 ARP 28 [0 ffffffff 0 806] ------- [REQUEST 0/0 0/3]
r 13.761735041 _1_ MAC  --- 0 ARP 28 [0 ffffffff 0 806] ------- [REQUEST 0/0 0/3]
r 13.761735144 _3_ MAC  --- 0 ARP 28 [0 ffffffff 0 806] ------- [REQUEST 0/0 0/3]
r 13.761735512 _4_ MAC  --- 0 ARP 28 [0 ffffffff 0 806] ------- [REQUEST 0/0 0/3]
s 13.762065144 _3_ MAC  --- 0 RTS 44 [52e 0 3 0] 
r 13.762418080 _0_ MAC  --- 0 RTS 44 [52e 0 3 0] 
s 13.762428080 _0_ MAC  --- 0 CTS 38 [3f4 3 0 0] 
r 13.762733016 _3_ MAC  --- 0 CTS 38 [3f4 3 0 0] 
s 13.762743016 _3_ MAC  --- 0 ARP 86 [13a 0 3 806] ------- [REPLY 3/3 0/0]
r 13.763431953 _0_ MAC  --- 0 ARP 28 [13a 0 3 806] ------- [REPLY 3/3 0/0]
s 13.763441953 _0_ MAC  --- 0 ACK 38 [0 3 0 0] 
r 13.763746889 _3_ MAC  --- 0 ACK 38 [0 3 0 0] 
s 13.764095953 _0_ MAC  --- 0 ARP 86 [0 ffffffff 0 806] ------- [REQUEST 0/0 0/3]
r 13.764784563 _2_ MAC  --- 0 ARP 28 [0 ffffffff 0 806] ------- [REQUEST 0/0 0/3]
r 13.764784786 _1_ MAC  --- 0 ARP 28 [0 ffffffff 0 806] ------- [REQUEST 0/0 0/3]
r 13.764784889 _3_ MAC  --- 0 ARP 28 [0 ffffffff 0 806] ------- [REQUEST 0/0 0/3]
r 13.764785257 _4_ MAC  --- 0 ARP 28 [0 ffffffff 0 806] ------- [REQUEST 0/0 0/3]
s 13.764999889 _3_ MAC  --- 0 RTS 44 [52e 0 3 0] 
r 13.765352825 _0_ MAC  --- 0 RTS 44 [52e 0 3 0] 
s 13.765362825 _0_ MAC  --- 0 CTS 38 [3f4 3 0 0] 
r 13.765667762 _3_ MAC  --- 0 CTS 38 [3f4 3 0 0] 
s 13.765677762 _3_ MAC  --- 0 ARP 86 [13a 0 3 806] ------- [REPLY 3/3 0/0]
r 13.766366698 _0_ MAC  --- 0 ARP 28 [13a 0 3 806] ------- [REPLY 3/3 0/0]
s 13.766376698 _0_ MAC  --- 0 ACK 38 [0 3 0 0] 
r 13.766681634 _3_ MAC  --- 0 ACK 38 [0 3 0 0] 
s 13.766750698 _0_ MAC  --- 0 ARP 86 [0 ffffffff 0 806] ------- [REQUEST 0/0 0/3]
r 13.767439308 _2_ MAC  --- 0 ARP 28 [0 ffffffff 0 806] ------- [REQUEST 0/0 0/3]
r 13.767439531 _1_ MAC  --- 0 ARP 28 [0 ffffffff 0 806] ------- [REQUEST 0/0 0/3]
r 13.767439634 _3_ MAC  --- 0 ARP 28 [0 ffffffff 0 806] ------- [REQUEST 0/0 0/3]
r 13.767440002 _4_ MAC  --- 0 ARP 28 [0 ffffffff 0 806] ------- [REQUEST 0/0 0/3]
s 13.767888698 _0_ MAC  --- 0 RTS 44 [6ce 3 0 0] 
r 13.768241634 _3_ MAC  --- 0 RTS 44 [6ce 3 0 0] 
s 13.768251634 _3_ MAC  --- 0 CTS 38 [594 0 0 0] 
r 13.768556571 _0_ MAC  --- 0 CTS 38 [594 0 0 0] 
s 13.768566571 _0_ MAC  --- 11 tcp 138 [13a 3 0 800] ------- [0:0 5:0 32 3] [0 0] 0 0
r 13.769671507 _3_ MAC  --- 11 tcp 80 [13a 3 0 800] ------- [0:0 5:0 32 3] [0 0] 1 0
s 13.769681507 _3_ MAC  --- 0 ACK 38 [0 0 0 0] 
r 13.769696507 _3_ RTR  --- 11 tcp 80 [13a 3 0 800] ------- [0:0 5:0 32 3] [0 0] 1 0
f 13.769696507 _3_ RTR  --- 11 tcp 80 [13a 3 0 800] ------- [0:0 5:0 31 5] [0 0] 1 0
r 13.769986443 _0_ MAC  --- 0 ACK 38 [0 0 0 0] 
s 13.770075507 _3_ MAC  --- 0 RTS 44 [52e 0 3 0] 
r 13.770428443 _0_ MAC  --- 0 RTS 44 [52e 0 3 0] 
s 13.770438443 _0_ MAC  --- 0 CTS 38 [3f4 3 0 0] 
r 13.770743379 _3_ MAC  --- 0 CTS 38 [3f4 3 0 0] 
s 13.770753379 _3_ MAC  --- 0 ARP 86 [13a 0 3 806] ------- [REPLY 3/3 0/0]
r 13.771442316 _0_ MAC  --- 0 ARP 28 [13a 0 3 806] ------- [REPLY 3/3 0/0]
s 13.771452316 _0_ MAC  --- 0 ACK 38 [0 3 0 0] 
r 13.771757252 _3_ MAC  --- 0 ACK 38 [0 3 0 0] 
s 13.771967252 _3_ MAC  --- 0 ARP 86 [0 ffffffff 3 806] ------- [REQUEST 3/3 0/5]
r 13.772655652 _2_ MAC  --- 0 ARP 28 [0 ffffffff 3 806] ------- [REQUEST 3/3 0/5]
r 13.772655652 _4_ MAC  --- 0 ARP 28 [0 ffffffff 3 806] ------- [REQUEST 3/3 0/5]
r 13.772656173 _1_ MAC  --- 0 ARP 28 [0 ffffffff 3 806] ------- [REQUEST 3/3 0/5]
r 13.772656176 _6_ MAC  --- 0 ARP 28 [0 ffffffff 3 806] ------- [REQUEST 3/3 0/5]
r 13.772656188 _0_ MAC  --- 0 ARP 28 [0 ffffffff 3 806] ------- [REQUEST 3/3 0/5]
r 13.772656191 _5_ MAC  --- 0 ARP 28 [0 ffffffff 3 806] ------- [REQUEST 3/3 0/5]
s 13.772711191 _5_ MAC  --- 0 RTS 44 [52e 3 5 0] 
r 13.773064131 _3_ MAC  --- 0 RTS 44 [52e 3 5 0] 
s 13.773074131 _3_ MAC  --- 0 CTS 38 [3f4 5 0 0] 
r 13.773379070 _5_ MAC  --- 0 CTS 38 [3f4 5 0 0] 
s 13.773389070 _5_ MAC  --- 0 ARP 86 [13a 3 5 806] ------- [REPLY 5/5 3/3]
r 13.774078009 _3_ MAC  --- 0 ARP 28 [13a 3 5 806] ------- [REPLY 5/5 3/3]
s 13.774088009 _3_ MAC  --- 0 ACK 38 [0 5 0 0] 
r 13.774392948 _5_ MAC  --- 0 ACK 38 [0 5 0 0] 
s 13.774662009 _3_ MAC  --- 0 RTS 44 [6ce 5 3 0] 