n -t * -s 0  -x 0 -y 0 -Z 0 -z 20  -v circle -c black
n -t * -s 1  -x 0 -y 0 -Z 0 -z 20  -v circle -c black
n -t * -s 2  -x 0 -y 0 -Z 0 -z 20  -v circle -c black
n -t * -s 3  -x 0 -y 0 -Z 0 -z 20  -v circle -c black
n -t * -s 4  -x 0 -y 0 -Z 0 -z 20  -v circle -c black
n -t * -s 5  -x 0 -y 0 -Z 0 -z 20  -v circle -c black
n -t * -s 6  -x 0 -y 0 -Z 0 -z 20  -v circle -c black
V -t * -v 1.0a5 -a 0
W -t * -x 700 -y 700
A -t * -n 1 -p 0 -o 0x7fffffff -c 30 -a 1
A -t * -h 1 -m 1073741823 -s 0
+ -t 0.034797973 -s 0 -d -1 -p message -e 32 -c 2 -a 0 -i 0 -k RTR 
- -t 0.034797973 -s 0 -d -1 -p message -e 32 -c 2 -a 0 -i 0 -k RTR
h -t 0.034797973 -s 0 -d -1 -p message -e 32 -c 2 -a 0 -i 0 -k RTR
+ -t 0.035112973 -s 0 -d -1 -p message -e 90 -c 2 -a 0 -i 0 -k MAC 
- -t 0.035112973 -s 0 -d -1 -p message -e 90 -c 2 -a 0 -i 0 -k MAC
h -t 0.035112973 -s 0 -d -1 -p message -e 90 -c 2 -a 0 -i 0 -k MAC
r -t 0.035833583 -s 2 -d -1 -p message -e 32 -c 2 -a 0 -i 0 -k MAC
r -t 0.035833806 -s 1 -d -1 -p message -e 32 -c 2 -a 0 -i 0 -k MAC
r -t 0.035833909 -s 3 -d -1 -p message -e 32 -c 2 -a 0 -i 0 -k MAC
r -t 0.035834277 -s 4 -d -1 -p message -e 32 -c 2 -a 0 -i 0 -k MAC
r -t 0.035858583 -s 2 -d -1 -p message -e 32 -c 2 -a 0 -i 0 -k RTR
r -t 0.035858806 -s 1 -d -1 -p message -e 32 -c 2 -a 0 -i 0 -k RTR
r -t 0.035858909 -s 3 -d -1 -p message -e 32 -c 2 -a 0 -i 0 -k RTR
r -t 0.035859277 -s 4 -d -1 -p message -e 32 -c 2 -a 0 -i 0 -k RTR
+ -t 0.176673288 -s 1 -d -1 -p message -e 32 -c 2 -a 0 -i 1 -k RTR 
- -t 0.176673288 -s 1 -d -1 -p message -e 32 -c 2 -a 0 -i 1 -k RTR
h -t 0.176673288 -s 1 -d -1 -p message -e 32 -c 2 -a 0 -i 1 -k RTR
+ -t 0.177108288 -s 1 -d -1 -p message -e 90 -c 2 -a 0 -i 1 -k MAC 
- -t 0.177108288 -s 1 -d -1 -p message -e 90 -c 2 -a 0 -i 1 -k MAC
h -t 0.177108288 -s 1 -d -1 -p message -e 90 -c 2 -a 0 -i 1 -k MAC
r -t 0.177828875 -s 2 -d -1 -p message -e 32 -c 2 -a 0 -i 1 -k MAC
r -t 0.177829122 -s 0 -d -1 -p message -e 32 -c 2 -a 0 -i 1 -k MAC
r -t 0.177829210 -s 3 -d -1 -p message -e 32 -c 2 -a 0 -i 1 -k MAC
r -t 0.177829582 -s 4 -d -1 -p message -e 32 -c 2 -a 0 -i 1 -k MAC
r -t 0.177853875 -s 2 -d -1 -p message -e 32 -c 2 -a 0 -i 1 -k RTR
r -t 0.177854122 -s 0 -d -1 -p message -e 32 -c 2 -a 0 -i 1 -k RTR
r -t 0.177854210 -s 3 -d -1 -p message -e 32 -c 2 -a 0 -i 1 -k RTR
r -t 0.177854582 -s 4 -d -1 -p message -e 32 -c 2 -a 0 -i 1 -k RTR
+ -t 0.473440071 -s 6 -d -1 -p message -e 32 -c 2 -a 0 -i 2 -k RTR 
- -t 0.473440071 -s 6 -d -1 -p message -e 32 -c 2 -a 0 -i 2 -k RTR
h -t 0.473440071 -s 6 -d -1 -p message -e 32 -c 2 -a 0 -i 2 -k RTR
+ -t 0.473855071 -s 6 -d -1 -p message -e 90 -c 2 -a 0 -i 2 -k MAC 
- -t 0.473855071 -s 6 -d -1 -p message -e 90 -c 2 -a 0 -i 2 -k MAC
h -t 0.473855071 -s 6 -d -1 -p message -e 90 -c 2 -a 0 -i 2 -k MAC
r -t 0.474575661 -s 4 -d -1 -p message -e 32 -c 2 -a 0 -i 2 -k MAC
r -t 0.474575904 -s 5 -d -1 -p message -e 32 -c 2 -a 0 -i 2 -k MAC
r -t 0.474575995 -s 3 -d -1 -p message -e 32 -c 2 -a 0 -i 2 -k MAC
r -t 0.474576368 -s 2 -d -1 -p message -e 32 -c 2 -a 0 -i 2 -k MAC
r -t 0.474600661 -s 4 -d -1 -p message -e 32 -c 2 -a 0 -i 2 -k RTR
r -t 0.474600904 -s 5 -d -1 -p message -e 32 -c 2 -a 0 -i 2 -k RTR
r -t 0.474600995 -s 3 -d -1 -p message -e 32 -c 2 -a 0 -i 2 -k RTR
r -t 0.474601368 -s 2 -d -1 -p message -e 32 -c 2 -a 0 -i 2 -k RTR
+ -t 0.629410954 -s 4 -d -1 -p message -e 32 -c 2 -a 0 -i 3 -k RTR 
- -t 0.629410954 -s 4 -d -1 -p message -e 32 -c 2 -a 0 -i 3 -k RTR
h -t 0.629410954 -s 4 -d -1 -p message -e 32 -c 2 -a 0 -i 3 -k RTR
+ -t 0.629505954 -s 4 -d -1 -p message -e 90 -c 2 -a 0 -i 3 -k MAC 
- -t 0.629505954 -s 4 -d -1 -p message -e 90 -c 2 -a 0 -i 3 -k MAC
h -t 0.629505954 -s 4 -d -1 -p message -e 90 -c 2 -a 0 -i 3 -k MAC
r -t 0.630226354 -s 3 -d -1 -p message -e 32 -c 2 -a 0 -i 3 -k MAC
r -t 0.630226543 -s 6 -d -1 -p message -e 32 -c 2 -a 0 -i 3 -k MAC
r -t 0.630226566 -s 5 -d -1 -p message -e 32 -c 2 -a 0 -i 3 -k MAC
r -t 0.630226754 -s 2 -d -1 -p message -e 32 -c 2 -a 0 -i 3 -k MAC
r -t 0.630227247 -s 1 -d -1 -p message -e 32 -c 2 -a 0 -i 3 -k MAC
r -t 0.630227258 -s 0 -d -1 -p message -e 32 -c 2 -a 0 -i 3 -k MAC
r -t 0.630251354 -s 3 -d -1 -p message -e 32 -c 2 -a 0 -i 3 -k RTR
r -t 0.630251543 -s 6 -d -1 -p message -e 32 -c 2 -a 0 -i 3 -k RTR
r -t 0.630251566 -s 5 -d -1 -p message -e 32 -c 2 -a 0 -i 3 -k RTR
r -t 0.630251754 -s 2 -d -1 -p message -e 32 -c 2 -a 0 -i 3 -k RTR
r -t 0.630252247 -s 1 -d -1 -p message -e 32 -c 2 -a 0 -i 3 -k RTR
r -t 0.630252258 -s 0 -d -1 -p message -e 32 -c 2 -a 0 -i 3 -k RTR
+ -t 0.887007923 -s 2 -d -1 -p message -e 32 -c 2 -a 0 -i 4 -k RTR 
- -t 0.887007923 -s 2 -d -1 -p message -e 32 -c 2 -a 0 -i 4 -k RTR
h -t 0.887007923 -s 2 -d -1 -p message -e 32 -c 2 -a 0 -i 4 -k RTR
+ -t 0.887662923 -s 2 -d -1 -p message -e 90 -c 2 -a 0 -i 4 -k MAC 
- -t 0.887662923 -s 2 -d -1 -p message -e 90 -c 2 -a 0 -i 4 -k MAC
h -t 0.887662923 -s 2 -d -1 -p message -e 90 -c 2 -a 0 -i 4 -k MAC
r -t 0.888383323 -s 3 -d -1 -p message -e 32 -c 2 -a 0 -i 4 -k MAC
r -t 0.888383511 -s 1 -d -1 -p message -e 32 -c 2 -a 0 -i 4 -k MAC
r -t 0.888383534 -s 0 -d -1 -p message -e 32 -c 2 -a 0 -i 4 -k MAC
r -t 0.888383723 -s 4 -d -1 -p message -e 32 -c 2 -a 0 -i 4 -k MAC
r -t 0.888384220 -s 6 -d -1 -p message -e 32 -c 2 -a 0 -i 4 -k MAC
r -t 0.888384231 -s 5 -d -1 -p message -e 32 -c 2 -a 0 -i 4 -k MAC
r -t 0.888408323 -s 3 -d -1 -p message -e 32 -c 2 -a 0 -i 4 -k RTR
r -t 0.888408511 -s 1 -d -1 -p message -e 32 -c 2 -a 0 -i 4 -k RTR
r -t 0.888408534 -s 0 -d -1 -p message -e 32 -c 2 -a 0 -i 4 -k RTR
r -t 0.888408723 -s 4 -d -1 -p message -e 32 -c 2 -a 0 -i 4 -k RTR
r -t 0.888409220 -s 6 -d -1 -p message -e 32 -c 2 -a 0 -i 4 -k RTR
r -t 0.888409231 -s 5 -d -1 -p message -e 32 -c 2 -a 0 -i 4 -k RTR
+ -t 1.600482502 -s 3 -d -1 -p message -e 32 -c 2 -a 0 -i 5 -k RTR 
- -t 1.600482502 -s 3 -d -1 -p message -e 32 -c 2 -a 0 -i 5 -k RTR
h -t 1.600482502 -s 3 -d -1 -p message -e 32 -c 2 -a 0 -i 5 -k RTR
+ -t 1.600597502 -s 3 -d -1 -p message -e 90 -c 2 -a 0 -i 5 -k MAC 
- -t 1.600597502 -s 3 -d -1 -p message -e 90 -c 2 -a 0 -i 5 -k MAC
h -t 1.600597502 -s 3 -d -1 -p message -e 90 -c 2 -a 0 -i 5 -k MAC
r -t 1.601317902 -s 2 -d -1 -p message -e 32 -c 2 -a 0 -i 5 -k MAC
r -t 1.601317902 -s 4 -d -1 -p message -e 32 -c 2 -a 0 -i 5 -k MAC
r -t 1.601318423 -s 1 -d -1 -p message -e 32 -c 2 -a 0 -i 5 -k MAC
r -t 1.601318426 -s 6 -d -1 -p message -e 32 -c 2 -a 0 -i 5 -k MAC
r -t 1.601318438 -s 0 -d -1 -p message -e 32 -c 2 -a 0 -i 5 -k MAC
r -t 1.601318441 -s 5 -d -1 -p message -e 32 -c 2 -a 0 -i 5 -k MAC
r -t 1.601342902 -s 2 -d -1 -p message -e 32 -c 2 -a 0 -i 5 -k RTR
r -t 1.601342902 -s 4 -d -1 -p message -e 32 -c 2 -a 0 -i 5 -k RTR
r -t 1.601343423 -s 1 -d -1 -p message -e 32 -c 2 -a 0 -i 5 -k RTR
r -t 1.601343426 -s 6 -d -1 -p message -e 32 -c 2 -a 0 -i 5 -k RTR
r -t 1.601343438 -s 0 -d -1 -p message -e 32 -c 2 -a 0 -i 5 -k RTR
r -t 1.601343441 -s 5 -d -1 -p message -e 32 -c 2 -a 0 -i 5 -k RTR
+ -t 1.640574422 -s 5 -d -1 -p message -e 32 -c 2 -a 0 -i 6 -k RTR 
- -t 1.640574422 -s 5 -d -1 -p message -e 32 -c 2 -a 0 -i 6 -k RTR
h -t 1.640574422 -s 5 -d -1 -p message -e 32 -c 2 -a 0 -i 6 -k RTR
+ -t 1.640729422 -s 5 -d -1 -p message -e 90 -c 2 -a 0 -i 6 -k MAC 
- -t 1.640729422 -s 5 -d -1 -p message -e 90 -c 2 -a 0 -i 6 -k MAC
h -t 1.640729422 -s 5 -d -1 -p message -e 90 -c 2 -a 0 -i 6 -k MAC
r -t 1.641450035 -s 4 -d -1 -p message -e 32 -c 2 -a 0 -i 6 -k MAC
r -t 1.641450255 -s 6 -d -1 -p message -e 32 -c 2 -a 0 -i 6 -k MAC
r -t 1.641450361 -s 3 -d -1 -p message -e 32 -c 2 -a 0 -i 6 -k MAC
r -t 1.641450729 -s 2 -d -1 -p message -e 32 -c 2 -a 0 -i 6 -k MAC
r -t 1.641475035 -s 4 -d -1 -p message -e 32 -c 2 -a 0 -i 6 -k RTR
r -t 1.641475255 -s 6 -d -1 -p message -e 32 -c 2 -a 0 -i 6 -k RTR
r -t 1.641475361 -s 3 -d -1 -p message -e 32 -c 2 -a 0 -i 6 -k RTR
r -t 1.641475729 -s 2 -d -1 -p message -e 32 -c 2 -a 0 -i 6 -k RTR
n -t 3.000000 -s 0 -x 1.000000 -y 300.000000 -U 0.000000 -V 0.000000 -T 0.000000
n -t 3.000000 -s 1 -x 1.000000 -y 50.000000 -U 0.000000 -V 0.000000 -T 0.000000
n -t 3.000000 -s 2 -x 130.000000 -y 170.000000 -U 0.000000 -V 0.000000 -T 0.000000
n -t 3.000000 -s 3 -x 250.000000 -y 170.000000 -U 0.000000 -V 0.000000 -T 0.000000
n -t 3.000000 -s 4 -x 370.000000 -y 170.000000 -U -0.000000 -V 0.000000 -T 0.000000
n -t 3.000000 -s 5 -x 500.000000 -y 300.000000 -U 0.000000 -V 0.000000 -T 0.000000
n -t 3.000000 -s 6 -x 500.000000 -y 50.000000 -U 0.000000 -V 0.000000 -T 0.000000
+ -t 3.000000000 -s 0 -d -1 -p tcp -e 40 -c 2 -a 0 -i 7 -k AGT 
- -t 3.000000000 -s 0 -d -1 -p tcp -e 40 -c 2 -a 0 -i 7 -k AGT
h -t 3.000000000 -s 0 -d -1 -p tcp -e 40 -c 2 -a 0 -i 7 -k AGT
+ -t 3.000000000 -s 1 -d -1 -p tcp -e 40 -c 2 -a 0 -i 8 -k AGT 
- -t 3.000000000 -s 1 -d -1 -p tcp -e 40 -c 2 -a 0 -i 8 -k AGT
h -t 3.000000000 -s 1 -d -1 -p tcp -e 40 -c 2 -a 0 -i 8 -k AGT
+ -t 6.000000000 -s 0 -d -1 -p tcp -e 40 -c 2 -a 0 -i 9 -k AGT 
- -t 6.000000000 -s 0 -d -1 -p tcp -e 40 -c 2 -a 0 -i 9 -k AGT
h -t 6.000000000 -s 0 -d -1 -p tcp -e 40 -c 2 -a 0 -i 9 -k AGT
+ -t 6.000000000 -s 1 -d -1 -p tcp -e 40 -c 2 -a 0 -i 10 -k AGT 
- -t 6.000000000 -s 1 -d -1 -p tcp -e 40 -c 2 -a 0 -i 10 -k AGT
h -t 6.000000000 -s 1 -d -1 -p tcp -e 40 -c 2 -a 0 -i 10 -k AGT
+ -t 12.000000000 -s 0 -d -1 -p tcp -e 40 -c 2 -a 0 -i 11 -k AGT 
- -t 12.000000000 -s 0 -d -1 -p tcp -e 40 -c 2 -a 0 -i 11 -k AGT
h -t 12.000000000 -s 0 -d -1 -p tcp -e 40 -c 2 -a 0 -i 11 -k AGT
+ -t 12.000000000 -s 1 -d -1 -p tcp -e 40 -c 2 -a 0 -i 12 -k AGT 
- -t 12.000000000 -s 1 -d -1 -p tcp -e 40 -c 2 -a 0 -i 12 -k AGT
h -t 12.000000000 -s 1 -d -1 -p tcp -e 40 -c 2 -a 0 -i 12 -k AGT
+ -t 12.037732458 -s 1 -d -1 -p message -e 32 -c 2 -a 0 -i 14 -k RTR 
- -t 12.037732458 -s 1 -d -1 -p message -e 32 -c 2 -a 0 -i 14 -k RTR
h -t 12.037732458 -s 1 -d -1 -p message -e 32 -c 2 -a 0 -i 14 -k RTR
+ -t 12.038007458 -s 1 -d -1 -p message -e 90 -c 2 -a 0 -i 14 -k MAC 
- -t 12.038007458 -s 1 -d -1 -p message -e 90 -c 2 -a 0 -i 14 -k MAC
h -t 12.038007458 -s 1 -d -1 -p message -e 90 -c 2 -a 0 -i 14 -k MAC
r -t 12.038728046 -s 2 -d -1 -p message -e 32 -c 2 -a 0 -i 14 -k MAC
r -t 12.038728292 -s 0 -d -1 -p message -e 32 -c 2 -a 0 -i 14 -k MAC
r -t 12.038728380 -s 3 -d -1 -p message -e 32 -c 2 -a 0 -i 14 -k MAC
r -t 12.038728752 -s 4 -d -1 -p message -e 32 -c 2 -a 0 -i 14 -k MAC
r -t 12.038753046 -s 2 -d -1 -p message -e 32 -c 2 -a 0 -i 14 -k RTR
r -t 12.038753292 -s 0 -d -1 -p message -e 32 -c 2 -a 0 -i 14 -k RTR
r -t 12.038753380 -s 3 -d -1 -p message -e 32 -c 2 -a 0 -i 14 -k RTR
r -t 12.038753752 -s 4 -d -1 -p message -e 32 -c 2 -a 0 -i 14 -k RTR
+ -t 12.039900658 -s 2 -d -1 -p message -e 32 -c 2 -a 0 -i 13 -k RTR 
- -t 12.039900658 -s 2 -d -1 -p message -e 32 -c 2 -a 0 -i 13 -k RTR
h -t 12.039900658 -s 2 -d -1 -p message -e 32 -c 2 -a 0 -i 13 -k RTR
+ -t 12.040035658 -s 2 -d -1 -p message -e 90 -c 2 -a 0 -i 13 -k MAC 
- -t 12.040035658 -s 2 -d -1 -p message -e 90 -c 2 -a 0 -i 13 -k MAC
h -t 12.040035658 -s 2 -d -1 -p message -e 90 -c 2 -a 0 -i 13 -k MAC
r -t 12.040756058 -s 3 -d -1 -p message -e 32 -c 2 -a 0 -i 13 -k MAC
r -t 12.040756246 -s 1 -d -1 -p message -e 32 -c 2 -a 0 -i 13 -k MAC
r -t 12.040756269 -s 0 -d -1 -p message -e 32 -c 2 -a 0 -i 13 -k MAC
r -t 12.040756458 -s 4 -d -1 -p message -e 32 -c 2 -a 0 -i 13 -k MAC
r -t 12.040756955 -s 6 -d -1 -p message -e 32 -c 2 -a 0 -i 13 -k MAC
r -t 12.040756966 -s 5 -d -1 -p message -e 32 -c 2 -a 0 -i 13 -k MAC
r -t 12.040781058 -s 3 -d -1 -p message -e 32 -c 2 -a 0 -i 13 -k RTR
r -t 12.040781246 -s 1 -d -1 -p message -e 32 -c 2 -a 0 -i 13 -k RTR
r -t 12.040781269 -s 0 -d -1 -p message -e 32 -c 2 -a 0 -i 13 -k RTR
r -t 12.040781458 -s 4 -d -1 -p message -e 32 -c 2 -a 0 -i 13 -k RTR
r -t 12.040781955 -s 6 -d -1 -p message -e 32 -c 2 -a 0 -i 13 -k RTR
r -t 12.040781966 -s 5 -d -1 -p message -e 32 -c 2 -a 0 -i 13 -k RTR
+ -t 12.044733345 -s 3 -d -1 -p message -e 32 -c 2 -a 0 -i 15 -k RTR 
- -t 12.044733345 -s 3 -d -1 -p message -e 32 -c 2 -a 0 -i 15 -k RTR
h -t 12.044733345 -s 3 -d -1 -p message -e 32 -c 2 -a 0 -i 15 -k RTR
+ -t 12.045148345 -s 3 -d -1 -p message -e 90 -c 2 -a 0 -i 15 -k MAC 
- -t 12.045148345 -s 3 -d -1 -p message -e 90 -c 2 -a 0 -i 15 -k MAC
h -t 12.045148345 -s 3 -d -1 -p message -e 90 -c 2 -a 0 -i 15 -k MAC
+ -t 12.045321926 -s 4 -d -1 -p message -e 32 -c 2 -a 0 -i 16 -k RTR 
- -t 12.045321926 -s 4 -d -1 -p message -e 32 -c 2 -a 0 -i 16 -k RTR
h -t 12.045321926 -s 4 -d -1 -p message -e 32 -c 2 -a 0 -i 16 -k RTR
r -t 12.045868745 -s 2 -d -1 -p message -e 32 -c 2 -a 0 -i 15 -k MAC
r -t 12.045868745 -s 4 -d -1 -p message -e 32 -c 2 -a 0 -i 15 -k MAC
r -t 12.045869266 -s 1 -d -1 -p message -e 32 -c 2 -a 0 -i 15 -k MAC
r -t 12.045869269 -s 6 -d -1 -p message -e 32 -c 2 -a 0 -i 15 -k MAC
r -t 12.045869281 -s 0 -d -1 -p message -e 32 -c 2 -a 0 -i 15 -k MAC
r -t 12.045869284 -s 5 -d -1 -p message -e 32 -c 2 -a 0 -i 15 -k MAC
r -t 12.045893745 -s 2 -d -1 -p message -e 32 -c 2 -a 0 -i 15 -k RTR
r -t 12.045893745 -s 4 -d -1 -p message -e 32 -c 2 -a 0 -i 15 -k RTR
r -t 12.045894266 -s 1 -d -1 -p message -e 32 -c 2 -a 0 -i 15 -k RTR
r -t 12.045894269 -s 6 -d -1 -p message -e 32 -c 2 -a 0 -i 15 -k RTR
r -t 12.045894281 -s 0 -d -1 -p message -e 32 -c 2 -a 0 -i 15 -k RTR
r -t 12.045894284 -s 5 -d -1 -p message -e 32 -c 2 -a 0 -i 15 -k RTR
+ -t 12.046418745 -s 4 -d -1 -p message -e 90 -c 2 -a 0 -i 16 -k MAC 
- -t 12.046418745 -s 4 -d -1 -p message -e 90 -c 2 -a 0 -i 16 -k MAC
h -t 12.046418745 -s 4 -d -1 -p message -e 90 -c 2 -a 0 -i 16 -k MAC
r -t 12.047139145 -s 3 -d -1 -p message -e 32 -c 2 -a 0 -i 16 -k MAC
r -t 12.047139334 -s 6 -d -1 -p message -e 32 -c 2 -a 0 -i 16 -k MAC
r -t 12.047139357 -s 5 -d -1 -p message -e 32 -c 2 -a 0 -i 16 -k MAC
r -t 12.047139545 -s 2 -d -1 -p message -e 32 -c 2 -a 0 -i 16 -k MAC
r -t 12.047140038 -s 1 -d -1 -p message -e 32 -c 2 -a 0 -i 16 -k MAC
r -t 12.047140049 -s 0 -d -1 -p message -e 32 -c 2 -a 0 -i 16 -k MAC
r -t 12.047164145 -s 3 -d -1 -p message -e 32 -c 2 -a 0 -i 16 -k RTR
r -t 12.047164334 -s 6 -d -1 -p message -e 32 -c 2 -a 0 -i 16 -k RTR
r -t 12.047164357 -s 5 -d -1 -p message -e 32 -c 2 -a 0 -i 16 -k RTR
r -t 12.047164545 -s 2 -d -1 -p message -e 32 -c 2 -a 0 -i 16 -k RTR
r -t 12.047165038 -s 1 -d -1 -p message -e 32 -c 2 -a 0 -i 16 -k RTR
r -t 12.047165049 -s 0 -d -1 -p message -e 32 -c 2 -a 0 -i 16 -k RTR
+ -t 12.180424059 -s 0 -d -1 -p message -e 32 -c 2 -a 0 -i 17 -k RTR 
- -t 12.180424059 -s 0 -d -1 -p message -e 32 -c 2 -a 0 -i 17 -k RTR
h -t 12.180424059 -s 0 -d -1 -p message -e 32 -c 2 -a 0 -i 17 -k RTR
+ -t 12.180979059 -s 0 -d -1 -p message -e 90 -c 2 -a 0 -i 17 -k MAC 
- -t 12.180979059 -s 0 -d -1 -p message -e 90 -c 2 -a 0 -i 17 -k MAC
h -t 12.180979059 -s 0 -d -1 -p message -e 90 -c 2 -a 0 -i 17 -k MAC
r -t 12.181699669 -s 2 -d -1 -p message -e 32 -c 2 -a 0 -i 17 -k MAC
r -t 12.181699892 -s 1 -d -1 -p message -e 32 -c 2 -a 0 -i 17 -k MAC
r -t 12.181699995 -s 3 -d -1 -p message -e 32 -c 2 -a 0 -i 17 -k MAC
r -t 12.181700363 -s 4 -d -1 -p message -e 32 -c 2 -a 0 -i 17 -k MAC
r -t 12.181724669 -s 2 -d -1 -p message -e 32 -c 2 -a 0 -i 17 -k RTR
r -t 12.181724892 -s 1 -d -1 -p message -e 32 -c 2 -a 0 -i 17 -k RTR
r -t 12.181724995 -s 3 -d -1 -p message -e 32 -c 2 -a 0 -i 17 -k RTR
r -t 12.181725363 -s 4 -d -1 -p message -e 32 -c 2 -a 0 -i 17 -k RTR
+ -t 12.383489762 -s 6 -d -1 -p message -e 32 -c 2 -a 0 -i 18 -k RTR 
- -t 12.383489762 -s 6 -d -1 -p message -e 32 -c 2 -a 0 -i 18 -k RTR
h -t 12.383489762 -s 6 -d -1 -p message -e 32 -c 2 -a 0 -i 18 -k RTR
+ -t 12.383724762 -s 6 -d -1 -p message -e 90 -c 2 -a 0 -i 18 -k MAC 
- -t 12.383724762 -s 6 -d -1 -p message -e 90 -c 2 -a 0 -i 18 -k MAC
h -t 12.383724762 -s 6 -d -1 -p message -e 90 -c 2 -a 0 -i 18 -k MAC
r -t 12.384445352 -s 4 -d -1 -p message -e 32 -c 2 -a 0 -i 18 -k MAC
r -t 12.384445596 -s 5 -d -1 -p message -e 32 -c 2 -a 0 -i 18 -k MAC
r -t 12.384445687 -s 3 -d -1 -p message -e 32 -c 2 -a 0 -i 18 -k MAC
r -t 12.384446059 -s 2 -d -1 -p message -e 32 -c 2 -a 0 -i 18 -k MAC
r -t 12.384470352 -s 4 -d -1 -p message -e 32 -c 2 -a 0 -i 18 -k RTR
r -t 12.384470596 -s 5 -d -1 -p message -e 32 -c 2 -a 0 -i 18 -k RTR
r -t 12.384470687 -s 3 -d -1 -p message -e 32 -c 2 -a 0 -i 18 -k RTR
r -t 12.384471059 -s 2 -d -1 -p message -e 32 -c 2 -a 0 -i 18 -k RTR
+ -t 12.437731363 -s 0 -d -1 -p message -e 44 -c 2 -a 0 -i 19 -k RTR 
- -t 12.437731363 -s 0 -d -1 -p message -e 44 -c 2 -a 0 -i 19 -k RTR
h -t 12.437731363 -s 0 -d -1 -p message -e 44 -c 2 -a 0 -i 19 -k RTR
+ -t 12.437806363 -s 0 -d -1 -p message -e 102 -c 2 -a 0 -i 19 -k MAC 
- -t 12.437806363 -s 0 -d -1 -p message -e 102 -c 2 -a 0 -i 19 -k MAC
h -t 12.437806363 -s 0 -d -1 -p message -e 102 -c 2 -a 0 -i 19 -k MAC
r -t 12.438622973 -s 2 -d -1 -p message -e 44 -c 2 -a 0 -i 19 -k MAC
r -t 12.438623196 -s 1 -d -1 -p message -e 44 -c 2 -a 0 -i 19 -k MAC
r -t 12.438623299 -s 3 -d -1 -p message -e 44 -c 2 -a 0 -i 19 -k MAC
r -t 12.438623667 -s 4 -d -1 -p message -e 44 -c 2 -a 0 -i 19 -k MAC
r -t 12.438647973 -s 2 -d -1 -p message -e 44 -c 2 -a 0 -i 19 -k RTR
r -t 12.438648196 -s 1 -d -1 -p message -e 44 -c 2 -a 0 -i 19 -k RTR
r -t 12.438648299 -s 3 -d -1 -p message -e 44 -c 2 -a 0 -i 19 -k RTR
r -t 12.438648667 -s 4 -d -1 -p message -e 44 -c 2 -a 0 -i 19 -k RTR
+ -t 12.639719728 -s 5 -d -1 -p message -e 32 -c 2 -a 0 -i 21 -k RTR 
- -t 12.639719728 -s 5 -d -1 -p message -e 32 -c 2 -a 0 -i 21 -k RTR
h -t 12.639719728 -s 5 -d -1 -p message -e 32 -c 2 -a 0 -i 21 -k RTR
+ -t 12.640074728 -s 5 -d -1 -p message -e 90 -c 2 -a 0 -i 21 -k MAC 
- -t 12.640074728 -s 5 -d -1 -p message -e 90 -c 2 -a 0 -i 21 -k MAC
h -t 12.640074728 -s 5 -d -1 -p message -e 90 -c 2 -a 0 -i 21 -k MAC
r -t 12.640795341 -s 4 -d -1 -p message -e 32 -c 2 -a 0 -i 21 -k MAC
r -t 12.640795562 -s 6 -d -1 -p message -e 32 -c 2 -a 0 -i 21 -k MAC
r -t 12.640795668 -s 3 -d -1 -p message -e 32 -c 2 -a 0 -i 21 -k MAC
r -t 12.640796036 -s 2 -d -1 -p message -e 32 -c 2 -a 0 -i 21 -k MAC
r -t 12.640820341 -s 4 -d -1 -p message -e 32 -c 2 -a 0 -i 21 -k RTR
r -t 12.640820562 -s 6 -d -1 -p message -e 32 -c 2 -a 0 -i 21 -k RTR
r -t 12.640820668 -s 3 -d -1 -p message -e 32 -c 2 -a 0 -i 21 -k RTR
r -t 12.640821036 -s 2 -d -1 -p message -e 32 -c 2 -a 0 -i 21 -k RTR
+ -t 12.850702724 -s 4 -d -1 -p message -e 44 -c 2 -a 0 -i 22 -k RTR 
- -t 12.850702724 -s 4 -d -1 -p message -e 44 -c 2 -a 0 -i 22 -k RTR
h -t 12.850702724 -s 4 -d -1 -p message -e 44 -c 2 -a 0 -i 22 -k RTR
+ -t 12.850897724 -s 4 -d -1 -p message -e 102 -c 2 -a 0 -i 22 -k MAC 
- -t 12.850897724 -s 4 -d -1 -p message -e 102 -c 2 -a 0 -i 22 -k MAC
h -t 12.850897724 -s 4 -d -1 -p message -e 102 -c 2 -a 0 -i 22 -k MAC
r -t 12.851714124 -s 3 -d -1 -p message -e 44 -c 2 -a 0 -i 22 -k MAC
r -t 12.851714314 -s 6 -d -1 -p message -e 44 -c 2 -a 0 -i 22 -k MAC
r -t 12.851714337 -s 5 -d -1 -p message -e 44 -c 2 -a 0 -i 22 -k MAC
r -t 12.851714524 -s 2 -d -1 -p message -e 44 -c 2 -a 0 -i 22 -k MAC
r -t 12.851715017 -s 1 -d -1 -p message -e 44 -c 2 -a 0 -i 22 -k MAC
r -t 12.851715028 -s 0 -d -1 -p message -e 44 -c 2 -a 0 -i 22 -k MAC
r -t 12.851739124 -s 3 -d -1 -p message -e 44 -c 2 -a 0 -i 22 -k RTR
r -t 12.851739314 -s 6 -d -1 -p message -e 44 -c 2 -a 0 -i 22 -k RTR
r -t 12.851739337 -s 5 -d -1 -p message -e 44 -c 2 -a 0 -i 22 -k RTR
r -t 12.851739524 -s 2 -d -1 -p message -e 44 -c 2 -a 0 -i 22 -k RTR
r -t 12.851740017 -s 1 -d -1 -p message -e 44 -c 2 -a 0 -i 22 -k RTR
r -t 12.851740028 -s 0 -d -1 -p message -e 44 -c 2 -a 0 -i 22 -k RTR
+ -t 13.036360140 -s 1 -d -1 -p message -e 32 -c 2 -a 0 -i 24 -k RTR 
- -t 13.036360140 -s 1 -d -1 -p message -e 32 -c 2 -a 0 -i 24 -k RTR
h -t 13.036360140 -s 1 -d -1 -p message -e 32 -c 2 -a 0 -i 24 -k RTR
+ -t 13.036635140 -s 1 -d -1 -p message -e 90 -c 2 -a 0 -i 24 -k MAC 
- -t 13.036635140 -s 1 -d -1 -p message -e 90 -c 2 -a 0 -i 24 -k MAC
h -t 13.036635140 -s 1 -d -1 -p message -e 90 -c 2 -a 0 -i 24 -k MAC
r -t 13.037355727 -s 2 -d -1 -p message -e 32 -c 2 -a 0 -i 24 -k MAC
r -t 13.037355973 -s 0 -d -1 -p message -e 32 -c 2 -a 0 -i 24 -k MAC
r -t 13.037356061 -s 3 -d -1 -p message -e 32 -c 2 -a 0 -i 24 -k MAC
r -t 13.037356434 -s 4 -d -1 -p message -e 32 -c 2 -a 0 -i 24 -k MAC
r -t 13.037380727 -s 2 -d -1 -p message -e 32 -c 2 -a 0 -i 24 -k RTR
r -t 13.037380973 -s 0 -d -1 -p message -e 32 -c 2 -a 0 -i 24 -k RTR
r -t 13.037381061 -s 3 -d -1 -p message -e 32 -c 2 -a 0 -i 24 -k RTR
r -t 13.037381434 -s 4 -d -1 -p message -e 32 -c 2 -a 0 -i 24 -k RTR
+ -t 13.040775800 -s 2 -d -1 -p message -e 32 -c 2 -a 0 -i 23 -k RTR 
- -t 13.040775800 -s 2 -d -1 -p message -e 32 -c 2 -a 0 -i 23 -k RTR
h -t 13.040775800 -s 2 -d -1 -p message -e 32 -c 2 -a 0 -i 23 -k RTR
+ -t 13.040930800 -s 2 -d -1 -p message -e 90 -c 2 -a 0 -i 23 -k MAC 
- -t 13.040930800 -s 2 -d -1 -p message -e 90 -c 2 -a 0 -i 23 -k MAC
h -t 13.040930800 -s 2 -d -1 -p message -e 90 -c 2 -a 0 -i 23 -k MAC
r -t 13.041651200 -s 3 -d -1 -p message -e 32 -c 2 -a 0 -i 23 -k MAC
r -t 13.041651388 -s 1 -d -1 -p message -e 32 -c 2 -a 0 -i 23 -k MAC
r -t 13.041651411 -s 0 -d -1 -p message -e 32 -c 2 -a 0 -i 23 -k MAC
r -t 13.041651600 -s 4 -d -1 -p message -e 32 -c 2 -a 0 -i 23 -k MAC
r -t 13.041652097 -s 6 -d -1 -p message -e 32 -c 2 -a 0 -i 23 -k MAC
r -t 13.041652107 -s 5 -d -1 -p message -e 32 -c 2 -a 0 -i 23 -k MAC
r -t 13.041676200 -s 3 -d -1 -p message -e 32 -c 2 -a 0 -i 23 -k RTR
r -t 13.041676388 -s 1 -d -1 -p message -e 32 -c 2 -a 0 -i 23 -k RTR
r -t 13.041676411 -s 0 -d -1 -p message -e 32 -c 2 -a 0 -i 23 -k RTR
r -t 13.041676600 -s 4 -d -1 -p message -e 32 -c 2 -a 0 -i 23 -k RTR
r -t 13.041677097 -s 6 -d -1 -p message -e 32 -c 2 -a 0 -i 23 -k RTR
r -t 13.041677107 -s 5 -d -1 -p message -e 32 -c 2 -a 0 -i 23 -k RTR
+ -t 13.044509964 -s 3 -d -1 -p message -e 44 -c 2 -a 0 -i 25 -k RTR 
- -t 13.044509964 -s 3 -d -1 -p message -e 44 -c 2 -a 0 -i 25 -k RTR
h -t 13.044509964 -s 3 -d -1 -p message -e 44 -c 2 -a 0 -i 25 -k RTR
+ -t 13.044784964 -s 3 -d -1 -p message -e 102 -c 2 -a 0 -i 25 -k MAC 
- -t 13.044784964 -s 3 -d -1 -p message -e 102 -c 2 -a 0 -i 25 -k MAC
h -t 13.044784964 -s 3 -d -1 -p message -e 102 -c 2 -a 0 -i 25 -k MAC
r -t 13.045601364 -s 2 -d -1 -p message -e 44 -c 2 -a 0 -i 25 -k MAC
r -t 13.045601364 -s 4 -d -1 -p message -e 44 -c 2 -a 0 -i 25 -k MAC
r -t 13.045601885 -s 1 -d -1 -p message -e 44 -c 2 -a 0 -i 25 -k MAC
r -t 13.045601888 -s 6 -d -1 -p message -e 44 -c 2 -a 0 -i 25 -k MAC
r -t 13.045601900 -s 0 -d -1 -p message -e 44 -c 2 -a 0 -i 25 -k MAC
r -t 13.045601903 -s 5 -d -1 -p message -e 44 -c 2 -a 0 -i 25 -k MAC
r -t 13.045626364 -s 2 -d -1 -p message -e 44 -c 2 -a 0 -i 25 -k RTR
r -t 13.045626364 -s 4 -d -1 -p message -e 44 -c 2 -a 0 -i 25 -k RTR
r -t 13.045626885 -s 1 -d -1 -p message -e 44 -c 2 -a 0 -i 25 -k RTR
r -t 13.045626888 -s 6 -d -1 -p message -e 44 -c 2 -a 0 -i 25 -k RTR
r -t 13.045626900 -s 0 -d -1 -p message -e 44 -c 2 -a 0 -i 25 -k RTR
r -t 13.045626903 -s 5 -d -1 -p message -e 44 -c 2 -a 0 -i 25 -k RTR
+ -t 13.382003623 -s 6 -d -1 -p message -e 32 -c 2 -a 0 -i 26 -k RTR 
- -t 13.382003623 -s 6 -d -1 -p message -e 32 -c 2 -a 0 -i 26 -k RTR
h -t 13.382003623 -s 6 -d -1 -p message -e 32 -c 2 -a 0 -i 26 -k RTR
+ -t 13.382678623 -s 6 -d -1 -p message -e 90 -c 2 -a 0 -i 26 -k MAC 
- -t 13.382678623 -s 6 -d -1 -p message -e 90 -c 2 -a 0 -i 26 -k MAC
h -t 13.382678623 -s 6 -d -1 -p message -e 90 -c 2 -a 0 -i 26 -k MAC
r -t 13.383399213 -s 4 -d -1 -p message -e 32 -c 2 -a 0 -i 26 -k MAC
r -t 13.383399457 -s 5 -d -1 -p message -e 32 -c 2 -a 0 -i 26 -k MAC
r -t 13.383399548 -s 3 -d -1 -p message -e 32 -c 2 -a 0 -i 26 -k MAC
r -t 13.383399920 -s 2 -d -1 -p message -e 32 -c 2 -a 0 -i 26 -k MAC
r -t 13.383424213 -s 4 -d -1 -p message -e 32 -c 2 -a 0 -i 26 -k RTR
r -t 13.383424457 -s 5 -d -1 -p message -e 32 -c 2 -a 0 -i 26 -k RTR
r -t 13.383424548 -s 3 -d -1 -p message -e 32 -c 2 -a 0 -i 26 -k RTR
r -t 13.383424920 -s 2 -d -1 -p message -e 32 -c 2 -a 0 -i 26 -k RTR
+ -t 13.444814193 -s 0 -d -1 -p message -e 32 -c 2 -a 0 -i 27 -k RTR 
- -t 13.444814193 -s 0 -d -1 -p message -e 32 -c 2 -a 0 -i 27 -k RTR
h -t 13.444814193 -s 0 -d -1 -p message -e 32 -c 2 -a 0 -i 27 -k RTR
+ -t 13.445469193 -s 0 -d -1 -p message -e 90 -c 2 -a 0 -i 27 -k MAC 
- -t 13.445469193 -s 0 -d -1 -p message -e 90 -c 2 -a 0 -i 27 -k MAC
h -t 13.445469193 -s 0 -d -1 -p message -e 90 -c 2 -a 0 -i 27 -k MAC
r -t 13.446189804 -s 2 -d -1 -p message -e 32 -c 2 -a 0 -i 27 -k MAC
r -t 13.446190027 -s 1 -d -1 -p message -e 32 -c 2 -a 0 -i 27 -k MAC
r -t 13.446190130 -s 3 -d -1 -p message -e 32 -c 2 -a 0 -i 27 -k MAC
r -t 13.446190498 -s 4 -d -1 -p message -e 32 -c 2 -a 0 -i 27 -k MAC
r -t 13.446214804 -s 2 -d -1 -p message -e 32 -c 2 -a 0 -i 27 -k RTR
r -t 13.446215027 -s 1 -d -1 -p message -e 32 -c 2 -a 0 -i 27 -k RTR
r -t 13.446215130 -s 3 -d -1 -p message -e 32 -c 2 -a 0 -i 27 -k RTR
r -t 13.446215498 -s 4 -d -1 -p message -e 32 -c 2 -a 0 -i 27 -k RTR
+ -t 13.635835652 -s 5 -d -1 -p message -e 44 -c 2 -a 0 -i 28 -k RTR 
- -t 13.635835652 -s 5 -d -1 -p message -e 44 -c 2 -a 0 -i 28 -k RTR
h -t 13.635835652 -s 5 -d -1 -p message -e 44 -c 2 -a 0 -i 28 -k RTR
+ -t 13.636350652 -s 5 -d -1 -p message -e 102 -c 2 -a 0 -i 28 -k MAC 
- -t 13.636350652 -s 5 -d -1 -p message -e 102 -c 2 -a 0 -i 28 -k MAC
h -t 13.636350652 -s 5 -d -1 -p message -e 102 -c 2 -a 0 -i 28 -k MAC
r -t 13.637167265 -s 4 -d -1 -p message -e 44 -c 2 -a 0 -i 28 -k MAC
r -t 13.637167486 -s 6 -d -1 -p message -e 44 -c 2 -a 0 -i 28 -k MAC
r -t 13.637167592 -s 3 -d -1 -p message -e 44 -c 2 -a 0 -i 28 -k MAC
r -t 13.637167959 -s 2 -d -1 -p message -e 44 -c 2 -a 0 -i 28 -k MAC
r -t 13.637192265 -s 4 -d -1 -p message -e 44 -c 2 -a 0 -i 28 -k RTR
r -t 13.637192486 -s 6 -d -1 -p message -e 44 -c 2 -a 0 -i 28 -k RTR
r -t 13.637192592 -s 3 -d -1 -p message -e 44 -c 2 -a 0 -i 28 -k RTR
r -t 13.637192959 -s 2 -d -1 -p message -e 44 -c 2 -a 0 -i 28 -k RTR
+ -t 13.759542271 -s 3 -d -1 -p message -e 68 -c 2 -a 0 -i 29 -k RTR 
- -t 13.759542271 -s 3 -d -1 -p message -e 68 -c 2 -a 0 -i 29 -k RTR
h -t 13.759542271 -s 3 -d -1 -p message -e 68 -c 2 -a 0 -i 29 -k RTR
+ -t 13.759917271 -s 3 -d -1 -p message -e 126 -c 2 -a 0 -i 29 -k MAC 
- -t 13.759917271 -s 3 -d -1 -p message -e 126 -c 2 -a 0 -i 29 -k MAC
h -t 13.759917271 -s 3 -d -1 -p message -e 126 -c 2 -a 0 -i 29 -k MAC
r -t 13.760925671 -s 2 -d -1 -p message -e 68 -c 2 -a 0 -i 29 -k MAC
r -t 13.760925671 -s 4 -d -1 -p message -e 68 -c 2 -a 0 -i 29 -k MAC
r -t 13.760926192 -s 1 -d -1 -p message -e 68 -c 2 -a 0 -i 29 -k MAC
r -t 13.760926195 -s 6 -d -1 -p message -e 68 -c 2 -a 0 -i 29 -k MAC
r -t 13.760926207 -s 0 -d -1 -p message -e 68 -c 2 -a 0 -i 29 -k MAC
r -t 13.760926210 -s 5 -d -1 -p message -e 68 -c 2 -a 0 -i 29 -k MAC
r -t 13.760950671 -s 2 -d -1 -p message -e 68 -c 2 -a 0 -i 29 -k RTR
r -t 13.760950671 -s 4 -d -1 -p message -e 68 -c 2 -a 0 -i 29 -k RTR
r -t 13.760951192 -s 1 -d -1 -p message -e 68 -c 2 -a 0 -i 29 -k RTR
r -t 13.760951195 -s 6 -d -1 -p message -e 68 -c 2 -a 0 -i 29 -k RTR
r -t 13.760951207 -s 0 -d -1 -p message -e 68 -c 2 -a 0 -i 29 -k RTR
+ -t 13.760951207 -s 0 -d 3 -p tcp -e 80 -c 2 -a 0 -i 7 -k RTR 
- -t 13.760951207 -s 0 -d 3 -p tcp -e 80 -c 2 -a 0 -i 7 -k RTR
h -t 13.760951207 -s 0 -d 3 -p tcp -e 80 -c 2 -a 0 -i 7 -k RTR
+ -t 13.760951207 -s 0 -d 3 -p tcp -e 80 -c 2 -a 0 -i 9 -k RTR 
- -t 13.760951207 -s 0 -d 3 -p tcp -e 80 -c 2 -a 0 -i 9 -k RTR
h -t 13.760951207 -s 0 -d 3 -p tcp -e 80 -c 2 -a 0 -i 9 -k RTR
d -t 13.760951207 -s 0 -d 3 -p tcp -e 80 -c 2 -a 0 -i 7 -k IFQ
+ -t 13.760951207 -s 0 -d 3 -p tcp -e 80 -c 2 -a 0 -i 11 -k RTR 
- -t 13.760951207 -s 0 -d 3 -p tcp -e 80 -c 2 -a 0 -i 11 -k RTR
h -t 13.760951207 -s 0 -d 3 -p tcp -e 80 -c 2 -a 0 -i 11 -k RTR
d -t 13.760951207 -s 0 -d 3 -p tcp -e 80 -c 2 -a 0 -i 9 -k IFQ
r -t 13.760951210 -s 5 -d -1 -p message -e 68 -c 2 -a 0 -i 29 -k RTR
+ -t 13.761046207 -s 0 -d -1 -p ARP -e 86 -c 2 -a 0 -i 0 -k MAC 
- -t 13.761046207 -s 0 -d -1 -p ARP -e 86 -c 2 -a 0 -i 0 -k MAC
h -t 13.761046207 -s 0 -d -1 -p ARP -e 86 -c 2 -a 0 -i 0 -k MAC
r -t 13.761734818 -s 2 -d -1 -p ARP -e 28 -c 2 -a 0 -i 0 -k MAC
r -t 13.761735041 -s 1 -d -1 -p ARP -e 28 -c 2 -a 0 -i 0 -k MAC
r -t 13.761735144 -s 3 -d -1 -p ARP -e 28 -c 2 -a 0 -i 0 -k MAC
r -t 13.761735512 -s 4 -d -1 -p ARP -e 28 -c 2 -a 0 -i 0 -k MAC
+ -t 13.762065144 -s 3 -d -1 -p RTS -e 44 -c 2 -a 0 -i 0 -k MAC 
- -t 13.762065144 -s 3 -d -1 -p RTS -e 44 -c 2 -a 0 -i 0 -k MAC
h -t 13.762065144 -s 3 -d -1 -p RTS -e 44 -c 2 -a 0 -i 0 -k MAC
r -t 13.762418080 -s 0 -d -1 -p RTS -e 44 -c 2 -a 0 -i 0 -k MAC
+ -t 13.762428080 -s 0 -d -1 -p CTS -e 38 -c 2 -a 0 -i 0 -k MAC 
- -t 13.762428080 -s 0 -d -1 -p CTS -e 38 -c 2 -a 0 -i 0 -k MAC
h -t 13.762428080 -s 0 -d -1 -p CTS -e 38 -c 2 -a 0 -i 0 -k MAC
r -t 13.762733016 -s 3 -d -1 -p CTS -e 38 -c 2 -a 0 -i 0 -k MAC
+ -t 13.762743016 -s 3 -d -1 -p ARP -e 86 -c 2 -a 0 -i 0 -k MAC 
- -t 13.762743016 -s 3 -d -1 -p ARP -e 86 -c 2 -a 0 -i 0 -k MAC
h -t 13.762743016 -s 3 -d -1 -p ARP -e 86 -c 2 -a 0 -i 0 -k MAC
r -t 13.763431953 -s 0 -d -1 -p ARP -e 28 -c 2 -a 0 -i 0 -k MAC
+ -t 13.763441953 -s 0 -d -1 -p ACK -e 38 -c 2 -a 0 -i 0 -k MAC 
- -t 13.763441953 -s 0 -d -1 -p ACK -e 38 -c 2 -a 0 -i 0 -k MAC
h -t 13.763441953 -s 0 -d -1 -p ACK -e 38 -c 2 -a 0 -i 0 -k MAC
r -t 13.763746889 -s 3 -d -1 -p ACK -e 38 -c 2 -a 0 -i 0 -k MAC
+ -t 13.764095953 -s 0 -d -1 -p ARP -e 86 -c 2 -a 0 -i 0 -k MAC 
- -t 13.764095953 -s 0 -d -1 -p ARP -e 86 -c 2 -a 0 -i 0 -k MAC
h -t 13.764095953 -s 0 -d -1 -p ARP -e 86 -c 2 -a 0 -i 0 -k MAC
r -t 13.764784563 -s 2 -d -1 -p ARP -e 28 -c 2 -a 0 -i 0 -k MAC
r -t 13.764784786 -s 1 -d -1 -p ARP -e 28 -c 2 -a 0 -i 0 -k MAC
r -t 13.764784889 -s 3 -d -1 -p ARP -e 28 -c 2 -a 0 -i 0 -k MAC
r -t 13.764785257 -s 4 -d -1 -p ARP -e 28 -c 2 -a 0 -i 0 -k MAC
+ -t 13.764999889 -s 3 -d -1 -p RTS -e 44 -c 2 -a 0 -i 0 -k MAC 
- -t 13.764999889 -s 3 -d -1 -p RTS -e 44 -c 2 -a 0 -i 0 -k MAC
h -t 13.764999889 -s 3 -d -1 -p RTS -e 44 -c 2 -a 0 -i 0 -k MAC
r -t 13.765352825 -s 0 -d -1 -p RTS -e 44 -c 2 -a 0 -i 0 -k MAC
+ -t 13.765362825 -s 0 -d -1 -p CTS -e 38 -c 2 -a 0 -i 0 -k MAC 